 Gaussian 16, Revision B.01,
 Gaussian 16:  ES64L-G16RevB.01 20-Dec-2017

 ----------------------------------------------------------------------
 # opt td=(root=1) b3lyp/6-31+g(d) geom=connectivity density=current em
 piricaldispersion=gd3
 ----------------------------------------------------------------------

 -------------------
 Title Card Required
 -------------------
 Symbolic Z-matrix:
 Charge =  0 Multiplicity = 1

 SCF Done:  E(RB3LYP) =  -363.840486290     A.U. after   14 cycles
 Total Energy, E(TD-HF/TD-DFT) =  -363.665461444
 SCF Done:  E(RB3LYP) =  -363.834306901     A.U. after   13 cycles
 Total Energy, E(TD-HF/TD-DFT) =  -363.676351830
 SCF Done:  E(RB3LYP) =  -363.830714194     A.U. after   13 cycles
 Total Energy, E(TD-HF/TD-DFT) =  -363.677565048
 SCF Done:  E(RB3LYP) =  -363.829890064     A.U. after   11 cycles
 Total Energy, E(TD-HF/TD-DFT) =  -363.677687627
 SCF Done:  E(RB3LYP) =  -363.829901204     A.U. after   11 cycles
 Total Energy, E(TD-HF/TD-DFT) =  -363.677710343
 SCF Done:  E(RB3LYP) =  -363.830031960     A.U. after   10 cycles

 Excitation energies and oscillator strengths:

 Excited State   1:      Singlet-A      4.1448 eV  299.13 nm  f=0.0954  <S**2>=0.000
      29 -> 32         0.11139
      31 -> 32         0.68202
 This state for optimization and/or second-order correction.
 Total Energy, E(TD-HF/TD-DFT) =  -363.677713813
 Copying the excited state density for this state as the 1-particle RhoCI density.

 Excited State   2:      Singlet-A      4.4842 eV  276.49 nm  f=0.0021  <S**2>=0.000
      31 -> 33         0.70449

 Excited State   3:      Singlet-A      4.7474 eV  261.16 nm  f=0.0066  <S**2>=0.000
      30 -> 32         0.53862
      31 -> 35        -0.44017

 Optimization completed.
    -- Stationary point found.

                         Standard orientation:
 ---------------------------------------------------------------------
 Center     Atomic      Atomic             Coordinates (Angstroms)
 Number     Number       Type             X           Y           Z
 ---------------------------------------------------------------------
      1          6           0       -0.226769    0.749541    0.000018
      2          6           0       -0.250697   -0.649928   -0.000058
      3          6           0        0.896813   -1.466604    0.000026
      4          6           0        2.145063   -0.734578    0.000195
      5          6           0        2.197615    0.651367    0.000270
      6          6           0        1.015156    1.456751    0.000186
      7          6           0       -1.590540    1.184976   -0.000099
      8          6           0       -2.432798    0.026189   -0.000287
      9          1           0        0.859470   -2.549633   -0.000033
     10          1           0        3.072982   -1.301124    0.000266
     11          1           0        3.167696    1.141805    0.000400
     12          1           0        1.054348    2.540178    0.000251
     13          1           0       -1.950997    2.205606   -0.000087
     14          1           0       -3.509044   -0.063010   -0.000428
     15          1           0       -1.923223   -2.003491   -0.000301
     16          7           0       -1.613472   -1.039517   -0.000226
 ---------------------------------------------------------------------

 The electronic state is 1-A.
 Alpha  occ. eigenvalues --  -14.38952 -10.23150 -10.22739 -10.20382 -10.19679
 Alpha  occ. eigenvalues --  -10.19356 -10.19207 -10.18974 -10.18162  -0.98545
 Alpha  occ. eigenvalues --   -0.83914  -0.77698  -0.74246  -0.71081  -0.63134
 Alpha  occ. eigenvalues --   -0.59839  -0.57971  -0.54430  -0.48718  -0.47652
 Alpha  occ. eigenvalues --   -0.44137  -0.43665  -0.42299  -0.40702  -0.39610
 Alpha  occ. eigenvalues --   -0.35577  -0.34890  -0.33636  -0.27473  -0.23621
 Alpha  occ. eigenvalues --   -0.19874
 Alpha virt. eigenvalues --   -0.03061  -0.00495   0.01469   0.01614   0.02155
 Alpha virt. eigenvalues --    0.03545   0.03723   0.03931   0.05700   0.05993
 Alpha virt. eigenvalues --    0.06418   0.06493   0.08407   0.08641   0.10437

 Mulliken charges:
               1
     1  C    1.521940
     2  C   -0.917646
     3  C   -0.502492
     4  C   -0.324208
     5  C    0.005165
     6  C   -0.776263
     7  C    0.081534
     8  C   -0.237240
     9  H    0.172052
    10  H    0.168762
    11  H    0.166570
    12  H    0.175293
    13  H    0.216011
    14  H    0.217655
    15  H    0.433214
    16  N   -0.400346
 Sum of Mulliken charges =  -0.00000

 Dipole moment (field-independent basis, Debye):
    X=             -4.8430    Y=             -1.1348    Z=             -0.0006  Tot=              4.9742
 Quadrupole moment (field-independent basis, Debye-Ang):
   XX=            -44.5823   YY=            -47.4505   ZZ=            -60.8698
   XY=              2.1423   XZ=              0.0019   YZ=              0.0009

 Normal termination of Gaussian 16 at Wed Jun 13 08:17:25 2018.
