 Gaussian 16, Revision B.01,
 Gaussian 16:  ES64L-G16RevB.01 20-Dec-2017

 -----------------------------------
 # opt td=(root=1) LC-BLYP/6-31+g(d)
 -----------------------------------

 --------------------------------
 IndoleFixedOptimization1WaterMol
 --------------------------------
 Symbolic Z-matrix:
 Charge =  0 Multiplicity = 1

 SCF Done:  E(RLC-B+HF-LYP) =  -439.017873614     A.U. after   16 cycles
 Total Energy, E(TD-HF/TD-DFT) =  -438.827064396
 SCF Done:  E(RLC-B+HF-LYP) =  -439.014045703     A.U. after   15 cycles
 Total Energy, E(TD-HF/TD-DFT) =  -438.831869520
 SCF Done:  E(RLC-B+HF-LYP) =  -439.012378534     A.U. after   15 cycles
 Total Energy, E(TD-HF/TD-DFT) =  -438.832438690
 SCF Done:  E(RLC-B+HF-LYP) =  -439.011894284     A.U. after   14 cycles
 Total Energy, E(TD-HF/TD-DFT) =  -438.832517080
 SCF Done:  E(RLC-B+HF-LYP) =  -439.011682310     A.U. after   15 cycles
 Total Energy, E(TD-HF/TD-DFT) =  -438.832577196
 SCF Done:  E(RLC-B+HF-LYP) =  -439.012081961     A.U. after   15 cycles
 Total Energy, E(TD-HF/TD-DFT) =  -438.832604710
 SCF Done:  E(RLC-B+HF-LYP) =  -439.012343994     A.U. after   14 cycles
 Total Energy, E(TD-HF/TD-DFT) =  -438.832624879
 SCF Done:  E(RLC-B+HF-LYP) =  -439.012445459     A.U. after   14 cycles
 Total Energy, E(TD-HF/TD-DFT) =  -438.832639376
 SCF Done:  E(RLC-B+HF-LYP) =  -439.012358700     A.U. after   14 cycles
 Total Energy, E(TD-HF/TD-DFT) =  -438.832649394
 SCF Done:  E(RLC-B+HF-LYP) =  -439.012323525     A.U. after   15 cycles
 Total Energy, E(TD-HF/TD-DFT) =  -438.832652540
 SCF Done:  E(RLC-B+HF-LYP) =  -439.012226383     A.U. after   13 cycles
 Total Energy, E(TD-HF/TD-DFT) =  -438.832653878
 SCF Done:  E(RLC-B+HF-LYP) =  -439.012184967     A.U. after   14 cycles
 Total Energy, E(TD-HF/TD-DFT) =  -438.832654911
 SCF Done:  E(RLC-B+HF-LYP) =  -439.012191947     A.U. after   12 cycles

 Excitation energies and oscillator strengths:

 Excited State   1:      Singlet-A      4.8854 eV  253.78 nm  f=0.0829  <S**2>=0.000
      35 -> 38         0.40494
      35 -> 43        -0.17781
      36 -> 38         0.48050
      36 -> 43         0.11169
      36 -> 45         0.15426
 This state for optimization and/or second-order correction.
 Total Energy, E(TD-HF/TD-DFT) =  -438.832655007
 Copying the excited state density for this state as the 1-particle RhoCI density.

 Excited State   2:      Singlet-A      5.2090 eV  238.02 nm  f=0.0992  <S**2>=0.000
      35 -> 38         0.43136
      35 -> 45         0.13407
      36 -> 38        -0.43732
      36 -> 43         0.24923

 Excited State   3:      Singlet-A      5.8011 eV  213.72 nm  f=0.0038  <S**2>=0.000
      36 -> 37        -0.62331
      36 -> 40         0.15842
      36 -> 44        -0.18882
      36 -> 47        -0.10683

 Optimization completed.
    -- Stationary point found.

                         Standard orientation:
 ---------------------------------------------------------------------
 Center     Atomic      Atomic             Coordinates (Angstroms)
 Number     Number       Type             X           Y           Z
 ---------------------------------------------------------------------
      1          6           0       -1.020086    1.942242   -0.000102
      2          1           0       -1.860917    2.618189   -0.000161
      3          6           0        0.318281    2.167014    0.000054
      4          1           0        0.799196    3.135570    0.000169
      5          6           0        0.980879    0.896961    0.000036
      6          6           0        2.311353    0.478989    0.000191
      7          6           0        2.558579   -0.922689    0.000118
      8          6           0        1.543379   -1.883615   -0.000075
      9          6           0        0.189085   -1.492017   -0.000211
     10          6           0       -0.055532   -0.099240   -0.000150
     11          1           0        3.134613    1.183214    0.000353
     12          1           0        3.591028   -1.258940    0.000216
     13          1           0        1.806390   -2.934747   -0.000126
     14          1           0       -0.624587   -2.207464   -0.000410
     15          7           0       -1.220865    0.552269   -0.000234
     16          1           0       -2.131005    0.089866   -0.000312
     17          8           0       -3.662766   -0.998400    0.000226
     18          1           0       -3.910592   -1.514990    0.779688
     19          1           0       -3.911575   -1.515252   -0.778748
 ---------------------------------------------------------------------

 The electronic state is 1-A.
 Alpha  occ. eigenvalues --  -19.08164 -14.27986 -10.18371 -10.18134 -10.15501
 Alpha  occ. eigenvalues --  -10.15368 -10.15254 -10.14634 -10.14362 -10.13762
 Alpha  occ. eigenvalues --   -1.21285  -1.13969  -0.99618  -0.94163  -0.88051
 Alpha  occ. eigenvalues --   -0.87237  -0.77001  -0.72973  -0.72177  -0.72020
 Alpha  occ. eigenvalues --   -0.67392  -0.61722  -0.60001  -0.58333  -0.55851
 Alpha  occ. eigenvalues --   -0.55825  -0.54043  -0.53469  -0.51497  -0.49665
 Alpha  occ. eigenvalues --   -0.46863  -0.45415  -0.45160  -0.39235  -0.30887
 Alpha  occ. eigenvalues --   -0.29533
 Alpha virt. eigenvalues --    0.04772   0.06322   0.06803   0.07243   0.08594
 Alpha virt. eigenvalues --    0.08712   0.10987   0.11077   0.11124   0.11308
 Alpha virt. eigenvalues --    0.11863   0.11991   0.13856   0.14629   0.14805

 Mulliken charges:
               1
     1  C   -0.263916
     2  H    0.204561
     3  C    0.135877
     4  H    0.198899
     5  C    0.705222
     6  C   -0.670945
     7  C   -0.008671
     8  C   -0.404407
     9  C    0.020158
    10  C   -0.617833
    11  H    0.193559
    12  H    0.176279
    13  H    0.183250
    14  H    0.184484
    15  N   -0.530363
    16  H    0.503602
    17  O   -1.025855
    18  H    0.508049
    19  H    0.508050
 Sum of Mulliken charges =  -0.00000

 Dipole moment (field-independent basis, Debye):
    X=             -4.1978    Y=             -2.0584    Z=              0.0007  Tot=              4.6753
 Quadrupole moment (field-independent basis, Debye-Ang):
   XX=            -43.4877   YY=            -51.1524   ZZ=            -63.5315
   XY=             10.0923   XZ=             -0.0002   YZ=             -0.0007

 Normal termination of Gaussian 16 at Fri Jun 15 12:30:27 2018.
