 Gaussian 16, Revision B.01,
 Gaussian 16:  ES64L-G16RevB.01 20-Dec-2017

 ----------------------------------------------------------------------
 # opt td=(root=1) wb97x/6-31+g(d) scrf=(solvent=water) geom=connectivi
 ty density=current
 ----------------------------------------------------------------------

 -------------------
 Title Card Required
 -------------------
 Symbolic Z-matrix:
 Charge =  0 Multiplicity = 1

 SCF Done:  E(RwB97X) =  -363.737493333     A.U. after   15 cycles
 Total Energy, E(TD-HF/TD-DFT) =  -363.551666647
 SCF Done:  E(RwB97X) =  -363.728454265     A.U. after   15 cycles
 Total Energy, E(TD-HF/TD-DFT) =  -363.564418014
 SCF Done:  E(RwB97X) =  -363.723269442     A.U. after   14 cycles
 Total Energy, E(TD-HF/TD-DFT) =  -363.565699407
 SCF Done:  E(RwB97X) =  -363.723053709     A.U. after   12 cycles
 Total Energy, E(TD-HF/TD-DFT) =  -363.565783191
 SCF Done:  E(RwB97X) =  -363.723098435     A.U. after   12 cycles
 Total Energy, E(TD-HF/TD-DFT) =  -363.565800712
 SCF Done:  E(RwB97X) =  -363.723256112     A.U. after   10 cycles

 Excitation energies and oscillator strengths:

 Excited State   1:      Singlet-A      4.2845 eV  289.38 nm  f=0.4206  <S**2>=0.000
      31 -> 32         0.69526
 This state for optimization and/or second-order correction.
 Total Energy, E(TD-HF/TD-DFT) =  -363.565803389
 Copying the excited state density for this state as the 1-particle RhoCI density.

 Excited State   2:      Singlet-A      4.9786 eV  249.04 nm  f=0.0250  <S**2>=0.000
      30 -> 32         0.56257
      31 -> 36        -0.39320

 Excited State   3:      Singlet-A      5.6912 eV  217.85 nm  f=0.0228  <S**2>=0.000
      31 -> 33         0.59912
      31 -> 35        -0.10098
      31 -> 37        -0.13873
      31 -> 40        -0.28746

 Optimization completed.
    -- Stationary point found.

                         Standard orientation:
 ---------------------------------------------------------------------
 Center     Atomic      Atomic             Coordinates (Angstroms)
 Number     Number       Type             X           Y           Z
 ---------------------------------------------------------------------
      1          6           0       -0.240656    0.760170    0.000015
      2          6           0       -0.267724   -0.665929   -0.000060
      3          6           0        0.857943   -1.458791    0.000024
      4          6           0        2.141143   -0.745540    0.000198
      5          6           0        2.203044    0.634102    0.000273
      6          6           0        1.039532    1.441548    0.000188
      7          6           0       -1.559019    1.200884   -0.000109
      8          6           0       -2.415604    0.046733   -0.000273
      9          1           0        0.815569   -2.543385   -0.000038
     10          1           0        3.057240   -1.331208    0.000269
     11          1           0        3.178212    1.117508    0.000404
     12          1           0        1.094314    2.526702    0.000253
     13          1           0       -1.913840    2.224352   -0.000098
     14          1           0       -3.493892   -0.030203   -0.000403
     15          1           0       -1.951488   -1.991981   -0.000315
     16          7           0       -1.619724   -1.035836   -0.000231
 ---------------------------------------------------------------------

 The electronic state is 1-A.
 Alpha  occ. eigenvalues --  -14.46772 -10.31942 -10.31313 -10.29052 -10.28600
 Alpha  occ. eigenvalues --  -10.28318 -10.28243 -10.27821 -10.26542  -1.12163
 Alpha  occ. eigenvalues --   -0.97493  -0.91424  -0.87757  -0.83762  -0.75403
 Alpha  occ. eigenvalues --   -0.72060  -0.70158  -0.65806  -0.60043  -0.58794
 Alpha  occ. eigenvalues --   -0.55190  -0.54659  -0.54416  -0.51431  -0.49997
 Alpha  occ. eigenvalues --   -0.45697  -0.45147  -0.44912  -0.38408  -0.33080
 Alpha  occ. eigenvalues --   -0.28299
 Alpha virt. eigenvalues --    0.03802   0.07671   0.08818   0.09121   0.09159
 Alpha virt. eigenvalues --    0.10509   0.10951   0.11160   0.11668   0.12490
 Alpha virt. eigenvalues --    0.13414   0.13803   0.14458   0.15306   0.16509

 Mulliken charges:
               1
     1  C    0.873615
     2  C   -0.634229
     3  C   -0.349080
     4  C   -0.398163
     5  C   -0.001359
     6  C   -0.801772
     7  C    0.223915
     8  C   -0.345497
     9  H    0.230117
    10  H    0.213638
    11  H    0.209293
    12  H    0.220641
    13  H    0.256384
    14  H    0.270941
    15  H    0.488831
    16  N   -0.457274
 Sum of Mulliken charges =  -0.00000

 Dipole moment (field-independent basis, Debye):
    X=             -5.0989    Y=             -2.2071    Z=             -0.0007  Tot=              5.5561
 Quadrupole moment (field-independent basis, Debye-Ang):
   XX=            -42.9309   YY=            -45.1211   ZZ=            -61.0862
   XY=              2.6797   XZ=              0.0022   YZ=              0.0011

 Normal termination of Gaussian 16 at Mon Jun 18 14:38:07 2018.
